[ (10x2x2) TATB crystal, a=9.01, b=9.01, c=9.01 ]

1920  atoms

4  atom types

    0.000000000000    90.100000000000  xlo xhi
    0.000000000000    15.605777776196  ylo yhi
    0.000000000000    12.559967732780  zlo zhi
   -9.010000000000    -0.432693481138    -5.260547774988 xy xz yz

Masses

1  12.011000
2  1.007900
3  14.007000
4  15.999000

Atoms

    1   1     4.004810333096     0.613035476843     1.613000034980
    2   1    13.014810333096     0.613035476843     1.613000034980
    3   1    22.024810333096     0.613035476843     1.613000034980
    4   1    31.034810333096     0.613035476843     1.613000034980
    5   1    40.044810333096     0.613035476843     1.613000034980
    6   1    49.054810333096     0.613035476843     1.613000034980
    7   1    58.064810333096     0.613035476843     1.613000034980
    8   1    67.074810333096     0.613035476843     1.613000034980
    9   1    76.084810333096     0.613035476843     1.613000034980
   10   1    85.094810333096     0.613035476843     1.613000034980
   11   1    -0.500189666904     8.415924364941     1.613000034980
   12   1     8.509810333096     8.415924364941     1.613000034980
   13   1    17.519810333096     8.415924364941     1.613000034980
   14   1    26.529810333096     8.415924364941     1.613000034980
   15   1    35.539810333096     8.415924364941     1.613000034980
   16   1    44.549810333096     8.415924364941     1.613000034980
   17   1    53.559810333096     8.415924364941     1.613000034980
   18   1    62.569810333096     8.415924364941     1.613000034980
   19   1    71.579810333096     8.415924364941     1.613000034980
   20   1    80.589810333096     8.415924364941     1.613000034980
   21   1     3.788463592527    -2.017238410651     7.892983901370
   22   1    12.798463592527    -2.017238410651     7.892983901370
   23   1    21.808463592527    -2.017238410651     7.892983901370
   24   1    30.818463592527    -2.017238410651     7.892983901370
   25   1    39.828463592527    -2.017238410651     7.892983901370
   26   1    48.838463592527    -2.017238410651     7.892983901370
   27   1    57.848463592527    -2.017238410651     7.892983901370
   28   1    66.858463592527    -2.017238410651     7.892983901370
   29   1    75.868463592527    -2.017238410651     7.892983901370
   30   1    84.878463592527    -2.017238410651     7.892983901370
   31   1    -0.716536407473     5.785650477447     7.892983901370
   32   1     8.293463592527     5.785650477447     7.892983901370
   33   1    17.303463592527     5.785650477447     7.892983901370
   34   1    26.313463592527     5.785650477447     7.892983901370
   35   1    35.323463592527     5.785650477447     7.892983901370
   36   1    44.333463592527     5.785650477447     7.892983901370
   37   1    53.343463592527     5.785650477447     7.892983901370
   38   1    62.353463592527     5.785650477447     7.892983901370
   39   1    71.363463592527     5.785650477447     7.892983901370
   40   1    80.373463592527     5.785650477447     7.892983901370
   41   1     3.298012779827    -0.634046412070     1.562000035980
   42   1    12.308012779827    -0.634046412070     1.562000035980
   43   1    21.318012779827    -0.634046412070     1.562000035980
   44   1    30.328012779827    -0.634046412070     1.562000035980
   45   1    39.338012779827    -0.634046412070     1.562000035980
   46   1    48.348012779827    -0.634046412070     1.562000035980
   47   1    57.358012779827    -0.634046412070     1.562000035980
   48   1    66.368012779827    -0.634046412070     1.562000035980
   49   1    75.378012779827    -0.634046412070     1.562000035980
   50   1    84.388012779827    -0.634046412070     1.562000035980
   51   1    -1.206987220173     7.168842476028     1.562000035980
   52   1     7.803012779827     7.168842476028     1.562000035980
   53   1    16.813012779827     7.168842476028     1.562000035980
   54   1    25.823012779827     7.168842476028     1.562000035980
   55   1    34.833012779827     7.168842476028     1.562000035980
   56   1    43.843012779827     7.168842476028     1.562000035980
   57   1    52.853012779827     7.168842476028     1.562000035980
   58   1    61.863012779827     7.168842476028     1.562000035980
   59   1    70.873012779827     7.168842476028     1.562000035980
   60   1    79.883012779827     7.168842476028     1.562000035980
   61   1     3.081666039258    -3.264320299564     7.841983902370
   62   1    12.091666039258    -3.264320299564     7.841983902370
   63   1    21.101666039258    -3.264320299564     7.841983902370
   64   1    30.111666039258    -3.264320299564     7.841983902370
   65   1    39.121666039258    -3.264320299564     7.841983902370
   66   1    48.131666039258    -3.264320299564     7.841983902370
   67   1    57.141666039258    -3.264320299564     7.841983902370
   68   1    66.151666039258    -3.264320299564     7.841983902370
   69   1    75.161666039258    -3.264320299564     7.841983902370
   70   1    84.171666039258    -3.264320299564     7.841983902370
   71   1    -1.423333960742     4.538568588534     7.841983902370
   72   1     7.586666039258     4.538568588534     7.841983902370
   73   1    16.596666039258     4.538568588534     7.841983902370
   74   1    25.606666039258     4.538568588534     7.841983902370
   75   1    34.616666039258     4.538568588534     7.841983902370
   76   1    43.626666039258     4.538568588534     7.841983902370
   77   1    52.636666039258     4.538568588534     7.841983902370
   78   1    61.646666039258     4.538568588534     7.841983902370
   79   1    70.656666039258     4.538568588534     7.841983902370
   80   1    79.666666039258     4.538568588534     7.841983902370
   81   1     1.850036034145    -0.597131336924     1.562000035980
   82   1    10.860036034145    -0.597131336924     1.562000035980
   83   1    19.870036034145    -0.597131336924     1.562000035980
   84   1    28.880036034145    -0.597131336924     1.562000035980
   85   1    37.890036034145    -0.597131336924     1.562000035980
   86   1    46.900036034145    -0.597131336924     1.562000035980
   87   1    55.910036034145    -0.597131336924     1.562000035980
   88   1    64.920036034145    -0.597131336924     1.562000035980
   89   1    73.930036034145    -0.597131336924     1.562000035980
   90   1    82.940036034145    -0.597131336924     1.562000035980
   91   1    -2.654963965855     7.205757551174     1.562000035980
   92   1     6.355036034145     7.205757551174     1.562000035980
   93   1    15.365036034145     7.205757551174     1.562000035980
   94   1    24.375036034145     7.205757551174     1.562000035980
   95   1    33.385036034145     7.205757551174     1.562000035980
   96   1    42.395036034145     7.205757551174     1.562000035980
   97   1    51.405036034145     7.205757551174     1.562000035980
   98   1    60.415036034145     7.205757551174     1.562000035980
   99   1    69.425036034145     7.205757551174     1.562000035980
  100   1    78.435036034145     7.205757551174     1.562000035980
  101   1     1.633689293576    -3.227405224418     7.841983902370
  102   1    10.643689293576    -3.227405224418     7.841983902370
  103   1    19.653689293576    -3.227405224418     7.841983902370
  104   1    28.663689293576    -3.227405224418     7.841983902370
  105   1    37.673689293576    -3.227405224418     7.841983902370
  106   1    46.683689293576    -3.227405224418     7.841983902370
  107   1    55.693689293576    -3.227405224418     7.841983902370
  108   1    64.703689293576    -3.227405224418     7.841983902370
  109   1    73.713689293576    -3.227405224418     7.841983902370
  110   1    82.723689293576    -3.227405224418     7.841983902370
  111   1    -2.871310706424     4.575483663680     7.841983902370
  112   1     6.138689293576     4.575483663680     7.841983902370
  113   1    15.148689293576     4.575483663680     7.841983902370
  114   1    24.158689293576     4.575483663680     7.841983902370
  115   1    33.168689293576     4.575483663680     7.841983902370
  116   1    42.178689293576     4.575483663680     7.841983902370
  117   1    51.188689293576     4.575483663680     7.841983902370
  118   1    60.198689293576     4.575483663680     7.841983902370
  119   1    69.208689293576     4.575483663680     7.841983902370
  120   1    78.218689293576     4.575483663680     7.841983902370
  121   1     1.126817790167     0.640008122762     1.577000021980
  122   1    10.136817790167     0.640008122762     1.577000021980
  123   1    19.146817790167     0.640008122762     1.577000021980
  124   1    28.156817790167     0.640008122762     1.577000021980
  125   1    37.166817790167     0.640008122762     1.577000021980
  126   1    46.176817790167     0.640008122762     1.577000021980
  127   1    55.186817790167     0.640008122762     1.577000021980
  128   1    64.196817790167     0.640008122762     1.577000021980
  129   1    73.206817790167     0.640008122762     1.577000021980
  130   1    82.216817790167     0.640008122762     1.577000021980
  131   1    -3.378182209833     8.442897010860     1.577000021980
  132   1     5.631817790167     8.442897010860     1.577000021980
  133   1    14.641817790167     8.442897010860     1.577000021980
  134   1    23.651817790167     8.442897010860     1.577000021980
  135   1    32.661817790167     8.442897010860     1.577000021980
  136   1    41.671817790167     8.442897010860     1.577000021980
  137   1    50.681817790167     8.442897010860     1.577000021980
  138   1    59.691817790167     8.442897010860     1.577000021980
  139   1    68.701817790167     8.442897010860     1.577000021980
  140   1    77.711817790167     8.442897010860     1.577000021980
  141   1     0.910471049598    -1.990265764732     7.856983888370
  142   1     9.920471049598    -1.990265764732     7.856983888370
  143   1    18.930471049598    -1.990265764732     7.856983888370
  144   1    27.940471049598    -1.990265764732     7.856983888370
  145   1    36.950471049598    -1.990265764732     7.856983888370
  146   1    45.960471049598    -1.990265764732     7.856983888370
  147   1    54.970471049598    -1.990265764732     7.856983888370
  148   1    63.980471049598    -1.990265764732     7.856983888370
  149   1    72.990471049598    -1.990265764732     7.856983888370
  150   1    82.000471049598    -1.990265764732     7.856983888370
  151   1    -3.594528950402     5.812623123366     7.856983888370
  152   1     5.415471049598     5.812623123366     7.856983888370
  153   1    14.425471049598     5.812623123366     7.856983888370
  154   1    23.435471049598     5.812623123366     7.856983888370
  155   1    32.445471049598     5.812623123366     7.856983888370
  156   1    41.455471049598     5.812623123366     7.856983888370
  157   1    50.465471049598     5.812623123366     7.856983888370
  158   1    59.475471049598     5.812623123366     7.856983888370
  159   1    68.485471049598     5.812623123366     7.856983888370
  160   1    77.495471049598     5.812623123366     7.856983888370
  161   1     1.885578537433     1.868223933490     1.534000038981
  162   1    10.895578537433     1.868223933490     1.534000038981
  163   1    19.905578537433     1.868223933490     1.534000038981
  164   1    28.915578537433     1.868223933490     1.534000038981
  165   1    37.925578537433     1.868223933490     1.534000038981
  166   1    46.935578537433     1.868223933490     1.534000038981
  167   1    55.945578537433     1.868223933490     1.534000038981
  168   1    64.955578537433     1.868223933490     1.534000038981
  169   1    73.965578537433     1.868223933490     1.534000038981
  170   1    82.975578537433     1.868223933490     1.534000038981
  171   1    -2.619421462567     9.671112821588     1.534000038981
  172   1     6.390578537433     9.671112821588     1.534000038981
  173   1    15.400578537433     9.671112821588     1.534000038981
  174   1    24.410578537433     9.671112821588     1.534000038981
  175   1    33.420578537433     9.671112821588     1.534000038981
  176   1    42.430578537433     9.671112821588     1.534000038981
  177   1    51.440578537433     9.671112821588     1.534000038981
  178   1    60.450578537433     9.671112821588     1.534000038981
  179   1    69.460578537433     9.671112821588     1.534000038981
  180   1    78.470578537433     9.671112821588     1.534000038981
  181   1     1.669231796864    -0.762049954004     7.813983905371
  182   1    10.679231796864    -0.762049954004     7.813983905371
  183   1    19.689231796864    -0.762049954004     7.813983905371
  184   1    28.699231796864    -0.762049954004     7.813983905371
  185   1    37.709231796864    -0.762049954004     7.813983905371
  186   1    46.719231796864    -0.762049954004     7.813983905371
  187   1    55.729231796864    -0.762049954004     7.813983905371
  188   1    64.739231796864    -0.762049954004     7.813983905371
  189   1    73.749231796864    -0.762049954004     7.813983905371
  190   1    82.759231796864    -0.762049954004     7.813983905371
  191   1    -2.835768203136     7.040838934094     7.813983905371
  192   1     6.174231796864     7.040838934094     7.813983905371
  193   1    15.184231796864     7.040838934094     7.813983905371
  194   1    24.194231796864     7.040838934094     7.813983905371
  195   1    33.204231796864     7.040838934094     7.813983905371
  196   1    42.214231796864     7.040838934094     7.813983905371
  197   1    51.224231796864     7.040838934094     7.813983905371
  198   1    60.234231796864     7.040838934094     7.813983905371
  199   1    69.244231796864     7.040838934094     7.813983905371
  200   1    78.254231796864     7.040838934094     7.813983905371
  201   1     3.319603343251     1.887133271898     1.582999944980
  202   1    12.329603343251     1.887133271898     1.582999944980
  203   1    21.339603343251     1.887133271898     1.582999944980
  204   1    30.349603343251     1.887133271898     1.582999944980
  205   1    39.359603343251     1.887133271898     1.582999944980
  206   1    48.369603343251     1.887133271898     1.582999944980
  207   1    57.379603343251     1.887133271898     1.582999944980
  208   1    66.389603343251     1.887133271898     1.582999944980
  209   1    75.399603343251     1.887133271898     1.582999944980
  210   1    84.409603343251     1.887133271898     1.582999944980
  211   1    -1.185396656749     9.690022159996     1.582999944980
  212   1     7.824603343251     9.690022159996     1.582999944980
  213   1    16.834603343251     9.690022159996     1.582999944980
  214   1    25.844603343251     9.690022159996     1.582999944980
  215   1    34.854603343251     9.690022159996     1.582999944980
  216   1    43.864603343251     9.690022159996     1.582999944980
  217   1    52.874603343251     9.690022159996     1.582999944980
  218   1    61.884603343251     9.690022159996     1.582999944980
  219   1    70.894603343251     9.690022159996     1.582999944980
  220   1    79.904603343251     9.690022159996     1.582999944980
  221   1     3.103256602682    -0.743140615596     7.862983811370
  222   1    12.113256602682    -0.743140615596     7.862983811370
  223   1    21.123256602682    -0.743140615596     7.862983811370
  224   1    30.133256602682    -0.743140615596     7.862983811370
  225   1    39.143256602682    -0.743140615596     7.862983811370
  226   1    48.153256602682    -0.743140615596     7.862983811370
  227   1    57.163256602682    -0.743140615596     7.862983811370
  228   1    66.173256602682    -0.743140615596     7.862983811370
  229   1    75.183256602682    -0.743140615596     7.862983811370
  230   1    84.193256602682    -0.743140615596     7.862983811370
  231   1    -1.401743397318     7.059748272502     7.862983811370
  232   1     7.608256602682     7.059748272502     7.862983811370
  233   1    16.618256602682     7.059748272502     7.862983811370
  234   1    25.628256602682     7.059748272502     7.862983811370
  235   1    34.638256602682     7.059748272502     7.862983811370
  236   1    43.648256602682     7.059748272502     7.862983811370
  237   1    52.658256602682     7.059748272502     7.862983811370
  238   1    61.668256602682     7.059748272502     7.862983811370
  239   1    70.678256602682     7.059748272502     7.862983811370
  240   1    79.688256602682     7.059748272502     7.862983811370
  241   1     0.283843155521     4.559579497392     4.666983603941
  242   1     9.293843155521     4.559579497392     4.666983603941
  243   1    18.303843155521     4.559579497392     4.666983603941
  244   1    27.313843155521     4.559579497392     4.666983603941
  245   1    36.323843155521     4.559579497392     4.666983603941
  246   1    45.333843155521     4.559579497392     4.666983603941
  247   1    54.343843155521     4.559579497392     4.666983603941
  248   1    63.353843155521     4.559579497392     4.666983603941
  249   1    72.363843155521     4.559579497392     4.666983603941
  250   1    81.373843155521     4.559579497392     4.666983603941
  251   1    -4.221156844479    12.362468385490     4.666983603941
  252   1     4.788843155521    12.362468385490     4.666983603941
  253   1    13.798843155521    12.362468385490     4.666983603941
  254   1    22.808843155521    12.362468385490     4.666983603941
  255   1    31.818843155521    12.362468385490     4.666983603941
  256   1    40.828843155521    12.362468385490     4.666983603941
  257   1    49.838843155521    12.362468385490     4.666983603941
  258   1    58.848843155521    12.362468385490     4.666983603941
  259   1    67.858843155521    12.362468385490     4.666983603941
  260   1    76.868843155521    12.362468385490     4.666983603941
  261   1     0.067496414952     1.929305609898    10.946967470331
  262   1     9.077496414952     1.929305609898    10.946967470331
  263   1    18.087496414952     1.929305609898    10.946967470331
  264   1    27.097496414952     1.929305609898    10.946967470331
  265   1    36.107496414952     1.929305609898    10.946967470331
  266   1    45.117496414952     1.929305609898    10.946967470331
  267   1    54.127496414952     1.929305609898    10.946967470331
  268   1    63.137496414952     1.929305609898    10.946967470331
  269   1    72.147496414952     1.929305609898    10.946967470331
  270   1    81.157496414952     1.929305609898    10.946967470331
  271   1    -4.437503585048     9.732194497996    10.946967470331
  272   1     4.572496414952     9.732194497996    10.946967470331
  273   1    13.582496414952     9.732194497996    10.946967470331
  274   1    22.592496414952     9.732194497996    10.946967470331
  275   1    31.602496414952     9.732194497996    10.946967470331
  276   1    40.612496414952     9.732194497996    10.946967470331
  277   1    49.622496414952     9.732194497996    10.946967470331
  278   1    58.632496414952     9.732194497996    10.946967470331
  279   1    67.642496414952     9.732194497996    10.946967470331
  280   1    76.652496414952     9.732194497996    10.946967470331
  281   1     0.990640469822     5.806661386190     4.717983722941
  282   1    10.000640469822     5.806661386190     4.717983722941
  283   1    19.010640469822     5.806661386190     4.717983722941
  284   1    28.020640469822     5.806661386190     4.717983722941
  285   1    37.030640469822     5.806661386190     4.717983722941
  286   1    46.040640469822     5.806661386190     4.717983722941
  287   1    55.050640469822     5.806661386190     4.717983722941
  288   1    64.060640469822     5.806661386190     4.717983722941
  289   1    73.070640469822     5.806661386190     4.717983722941
  290   1    82.080640469822     5.806661386190     4.717983722941
  291   1    -3.514359530178    13.609550274288     4.717983722941
  292   1     5.495640469822    13.609550274288     4.717983722941
  293   1    14.505640469822    13.609550274288     4.717983722941
  294   1    23.515640469822    13.609550274288     4.717983722941
  295   1    32.525640469822    13.609550274288     4.717983722941
  296   1    41.535640469822    13.609550274288     4.717983722941
  297   1    50.545640469822    13.609550274288     4.717983722941
  298   1    59.555640469822    13.609550274288     4.717983722941
  299   1    68.565640469822    13.609550274288     4.717983722941
  300   1    77.575640469822    13.609550274288     4.717983722941
  301   1     0.774293729253     3.176387498696    10.997967589331
  302   1     9.784293729253     3.176387498696    10.997967589331
  303   1    18.794293729253     3.176387498696    10.997967589331
  304   1    27.804293729253     3.176387498696    10.997967589331
  305   1    36.814293729253     3.176387498696    10.997967589331
  306   1    45.824293729253     3.176387498696    10.997967589331
  307   1    54.834293729253     3.176387498696    10.997967589331
  308   1    63.844293729253     3.176387498696    10.997967589331
  309   1    72.854293729253     3.176387498696    10.997967589331
  310   1    81.864293729253     3.176387498696    10.997967589331
  311   1    -3.730706270747    10.979276386794    10.997967589331
  312   1     5.279293729253    10.979276386794    10.997967589331
  313   1    14.289293729253    10.979276386794    10.997967589331
  314   1    23.299293729253    10.979276386794    10.997967589331
  315   1    32.309293729253    10.979276386794    10.997967589331
  316   1    41.319293729253    10.979276386794    10.997967589331
  317   1    50.329293729253    10.979276386794    10.997967589331
  318   1    59.339293729253    10.979276386794    10.997967589331
  319   1    68.349293729253    10.979276386794    10.997967589331
  320   1    77.359293729253    10.979276386794    10.997967589331
  321   1     2.438617275391     5.769746132455     4.717983722941
  322   1    11.448617275391     5.769746132455     4.717983722941
  323   1    20.458617275391     5.769746132455     4.717983722941
  324   1    29.468617275391     5.769746132455     4.717983722941
  325   1    38.478617275391     5.769746132455     4.717983722941
  326   1    47.488617275391     5.769746132455     4.717983722941
  327   1    56.498617275391     5.769746132455     4.717983722941
  328   1    65.508617275391     5.769746132455     4.717983722941
  329   1    74.518617275391     5.769746132455     4.717983722941
  330   1    83.528617275391     5.769746132455     4.717983722941
  331   1    -2.066382724609    13.572635020553     4.717983722941
  332   1     6.943617275391    13.572635020553     4.717983722941
  333   1    15.953617275391    13.572635020553     4.717983722941
  334   1    24.963617275391    13.572635020553     4.717983722941
  335   1    33.973617275391    13.572635020553     4.717983722941
  336   1    42.983617275391    13.572635020553     4.717983722941
  337   1    51.993617275391    13.572635020553     4.717983722941
  338   1    61.003617275391    13.572635020553     4.717983722941
  339   1    70.013617275391    13.572635020553     4.717983722941
  340   1    79.023617275391    13.572635020553     4.717983722941
  341   1     2.222270534822     3.139472244961    10.997967589331
  342   1    11.232270534822     3.139472244961    10.997967589331
  343   1    20.242270534822     3.139472244961    10.997967589331
  344   1    29.252270534822     3.139472244961    10.997967589331
  345   1    38.262270534822     3.139472244961    10.997967589331
  346   1    47.272270534822     3.139472244961    10.997967589331
  347   1    56.282270534822     3.139472244961    10.997967589331
  348   1    65.292270534822     3.139472244961    10.997967589331
  349   1    74.302270534822     3.139472244961    10.997967589331
  350   1    83.312270534822     3.139472244961    10.997967589331
  351   1    -2.282729465178    10.942361133059    10.997967589331
  352   1     6.727270534822    10.942361133059    10.997967589331
  353   1    15.737270534822    10.942361133059    10.997967589331
  354   1    24.747270534822    10.942361133059    10.997967589331
  355   1    33.757270534822    10.942361133059    10.997967589331
  356   1    42.767270534822    10.942361133059    10.997967589331
  357   1    51.777270534822    10.942361133059    10.997967589331
  358   1    60.787270534822    10.942361133059    10.997967589331
  359   1    69.797270534822    10.942361133059    10.997967589331
  360   1    78.807270534822    10.942361133059    10.997967589331
  361   1     3.161835519551     4.532606911106     4.702983855941
  362   1    12.171835519551     4.532606911106     4.702983855941
  363   1    21.181835519551     4.532606911106     4.702983855941
  364   1    30.191835519551     4.532606911106     4.702983855941
  365   1    39.201835519551     4.532606911106     4.702983855941
  366   1    48.211835519551     4.532606911106     4.702983855941
  367   1    57.221835519551     4.532606911106     4.702983855941
  368   1    66.231835519551     4.532606911106     4.702983855941
  369   1    75.241835519551     4.532606911106     4.702983855941
  370   1    84.251835519551     4.532606911106     4.702983855941
  371   1    -1.343164480449    12.335495799204     4.702983855941
  372   1     7.666835519551    12.335495799204     4.702983855941
  373   1    16.676835519551    12.335495799204     4.702983855941
  374   1    25.686835519551    12.335495799204     4.702983855941
  375   1    34.696835519551    12.335495799204     4.702983855941
  376   1    43.706835519551    12.335495799204     4.702983855941
  377   1    52.716835519551    12.335495799204     4.702983855941
  378   1    61.726835519551    12.335495799204     4.702983855941
  379   1    70.736835519551    12.335495799204     4.702983855941
  380   1    79.746835519551    12.335495799204     4.702983855941
  381   1     2.945488778982     1.902333023612    10.982967722331
  382   1    11.955488778982     1.902333023612    10.982967722331
  383   1    20.965488778982     1.902333023612    10.982967722331
  384   1    29.975488778982     1.902333023612    10.982967722331
  385   1    38.985488778982     1.902333023612    10.982967722331
  386   1    47.995488778982     1.902333023612    10.982967722331
  387   1    57.005488778982     1.902333023612    10.982967722331
  388   1    66.015488778982     1.902333023612    10.982967722331
  389   1    75.025488778982     1.902333023612    10.982967722331
  390   1    84.035488778982     1.902333023612    10.982967722331
  391   1    -1.559511221018     9.705221911710    10.982967722331
  392   1     7.450488778982     9.705221911710    10.982967722331
  393   1    16.460488778982     9.705221911710    10.982967722331
  394   1    25.470488778982     9.705221911710    10.982967722331
  395   1    34.480488778982     9.705221911710    10.982967722331
  396   1    43.490488778982     9.705221911710    10.982967722331
  397   1    52.500488778982     9.705221911710    10.982967722331
  398   1    61.510488778982     9.705221911710    10.982967722331
  399   1    70.520488778982     9.705221911710    10.982967722331
  400   1    79.530488778982     9.705221911710    10.982967722331
  401   1     2.403074772222     3.304391099609     4.745983600940
  402   1    11.413074772222     3.304391099609     4.745983600940
  403   1    20.423074772222     3.304391099609     4.745983600940
  404   1    29.433074772222     3.304391099609     4.745983600940
  405   1    38.443074772222     3.304391099609     4.745983600940
  406   1    47.453074772222     3.304391099609     4.745983600940
  407   1    56.463074772222     3.304391099609     4.745983600940
  408   1    65.473074772222     3.304391099609     4.745983600940
  409   1    74.483074772222     3.304391099609     4.745983600940
  410   1    83.493074772222     3.304391099609     4.745983600940
  411   1    -2.101925227778    11.107279987707     4.745983600940
  412   1     6.908074772222    11.107279987707     4.745983600940
  413   1    15.918074772222    11.107279987707     4.745983600940
  414   1    24.928074772222    11.107279987707     4.745983600940
  415   1    33.938074772222    11.107279987707     4.745983600940
  416   1    42.948074772222    11.107279987707     4.745983600940
  417   1    51.958074772222    11.107279987707     4.745983600940
  418   1    60.968074772222    11.107279987707     4.745983600940
  419   1    69.978074772222    11.107279987707     4.745983600940
  420   1    78.988074772222    11.107279987707     4.745983600940
  421   1     2.186728031653     0.674117212115    11.025967467330
  422   1    11.196728031653     0.674117212115    11.025967467330
  423   1    20.206728031653     0.674117212115    11.025967467330
  424   1    29.216728031653     0.674117212115    11.025967467330
  425   1    38.226728031653     0.674117212115    11.025967467330
  426   1    47.236728031653     0.674117212115    11.025967467330
  427   1    56.246728031653     0.674117212115    11.025967467330
  428   1    65.256728031653     0.674117212115    11.025967467330
  429   1    74.266728031653     0.674117212115    11.025967467330
  430   1    83.276728031653     0.674117212115    11.025967467330
  431   1    -2.318271968347     8.477006100213    11.025967467330
  432   1     6.691728031653     8.477006100213    11.025967467330
  433   1    15.701728031653     8.477006100213    11.025967467330
  434   1    24.711728031653     8.477006100213    11.025967467330
  435   1    33.721728031653     8.477006100213    11.025967467330
  436   1    42.731728031653     8.477006100213    11.025967467330
  437   1    51.741728031653     8.477006100213    11.025967467330
  438   1    60.751728031653     8.477006100213    11.025967467330
  439   1    69.761728031653     8.477006100213    11.025967467330
  440   1    78.771728031653     8.477006100213    11.025967467330
  441   1     0.969049906435     3.285481762084     4.696983813941
  442   1     9.979049906435     3.285481762084     4.696983813941